/*--------------------------------*- C++ -*----------------------------------*\
  =========                 |
  \\      /  F ield         | OpenFOAM: The Open Source CFD Toolbox
   \\    /   O peration     | Website:  https://openfoam.org
    \\  /    A nd           | Version:  6
     \\/     M anipulation  |
\*---------------------------------------------------------------------------*/
FoamFile
{
    version     2.0;
    format      ascii;
    class       volScalarField;
    location    "0";
    object      p;
}
// * * * * * * * * * * * * * * * * * * * * * * * * * * * * * * * * * * * * * //

dimensions      [0 2 -2 0 0 0 0];

internalField   nonuniform List<scalar> 
6241
(
-9.05914e-07
-7.13459e-06
-6.58218e-05
-0.000191173
-0.000345245
-0.000526232
-0.000747443
-0.000953679
-0.00115916
-0.00138145
-0.00157005
-0.00174354
-0.00191712
-0.00205339
-0.00216808
-0.00227033
-0.00233913
-0.00238391
-0.00240595
-0.0024016
-0.00237265
-0.00231168
-0.00223252
-0.00212896
-0.00198472
-0.00183084
-0.00165337
-0.0014273
-0.0012005
-0.000951782
-0.000648007
-0.000352958
-3.89924e-05
0.000333973
0.000688113
0.00105635
0.00148391
0.00188208
0.00228748
0.00274799
0.00316869
0.00358784
0.00400805
0.00446854
0.0048725
0.00526687
0.00568746
0.00604449
0.00638097
0.00672626
0.00700557
0.00725462
0.00749362
0.00766998
0.00780921
0.0079206
0.00797895
0.00799754
0.00797424
0.00791331
0.00781518
0.00766723
0.00750153
0.00730656
0.00706189
0.00682162
0.00656502
0.00626806
0.00599747
0.00572775
0.00543696
0.00519209
0.00496857
0.00475352
0.00459889
0.00448679
0.0044173
0.00440398
0.00442193
5.36499e-06
-8.83338e-07
-5.46967e-05
-0.000163351
-0.00029633
-0.000452966
-0.000645342
-0.000826748
-0.00100843
-0.00120585
-0.00137477
-0.00153061
-0.00168696
-0.00181014
-0.00191394
-0.00200652
-0.00206821
-0.00210814
-0.00212712
-0.00212072
-0.00209215
-0.0020339
-0.00195705
-0.0018586
-0.00172234
-0.0015748
-0.00140695
-0.00119394
-0.000977411
-0.000742743
-0.000456985
-0.000176053
0.000119575
0.000469867
0.000806286
0.00115234
0.00155328
0.00193073
0.00231101
0.0027422
0.00314021
0.00353271
0.00392995
0.0043601
0.00473783
0.00511024
0.00550249
0.005836
0.00615361
0.00647529
0.00673616
0.0069715
0.00719422
0.00735932
0.00749184
0.00759627
0.00765206
0.00767212
0.0076523
0.00759809
0.00750991
0.0073758
0.00722555
0.00704828
0.00682633
0.00660847
0.0063754
0.0061071
0.00586283
0.00561914
0.00535824
0.00513872
0.00493827
0.0047465
0.00460791
0.00450584
0.00443945
0.00442184
0.00443993
6.43459e-05
5.29447e-05
-1.25715e-06
-0.00010293
-0.000223314
-0.000364053
-0.00053669
-0.000698659
-0.000861846
-0.00103988
-0.00119156
-0.00133261
-0.00147462
-0.0015856
-0.00167988
-0.00176406
-0.00181902
-0.00185461
-0.00187082
-0.00186287
-0.00183463
-0.00177868
-0.0017051
-0.00161122
-0.00148187
-0.0013422
-0.00118285
-0.000981058
-0.000776845
-0.000554397
-0.000283859
-1.95093e-05
0.000260458
0.00059198
0.000907958
0.00123541
0.00161477
0.00196869
0.00232824
0.0026967
0.00310875
0.00347957
0.00385162
0.00425785
0.00461449
0.00496337
0.00533341
0.00564815
0.0059459
0.00624917
0.00649537
0.00671641
0.00692644
0.00708258
0.00720785
0.00730688
0.00736055
0.00738128
0.00736419
0.00731518
0.00723562
0.00711229
0.00697418
0.00681249
0.00660817
0.006408
0.00619539
0.00594913
0.0057255
0.00550377
0.00526522
0.00506498
0.00488275
0.00470715
0.0045797
0.00448482
0.00442114
0.004404
0.00442704
0.000191104
0.000162218
9.95884e-05
-3.20687e-06
-0.000118524
-0.000249337
-0.000407624
-0.000555256
-0.000702863
-0.00086368
-0.00100113
-0.00112822
-0.00125608
-0.00135681
-0.00144149
-0.00151661
-0.00156645
-0.0015975
-0.0016101
-0.0016022
-0.0015744
-0.0015201
-0.00145142
-0.00136267
-0.00123994
-0.00110966
-0.000959809
-0.000769304
-0.000578577
-0.000369651
-0.000114734
0.000132526
0.000395422
0.000707491
0.00100346
0.001311
0.00166785
0.00199981
0.00233757
0.00272103
0.00307105
0.00341954
0.00376858
0.00415117
0.00448648
0.00481358
0.00516256
0.00545864
0.00573761
0.00602411
0.00625595
0.00646288
0.00666196
0.0068094
0.00692657
0.00702159
0.00707315
0.00709262
0.00707893
0.00703467
0.0069608
0.00684798
0.00672095
0.00657113
0.00638315
0.00619889
0.00600247
0.0057759
0.00557027
0.00536586
0.00514628
0.00496184
0.00479313
0.00462978
0.00451009
0.00441913
0.00435611
0.00433762
0.00435898
0.000348333
0.000296927
0.000219763
0.00010933
-7.32575e-06
-0.000135508
-0.000286706
-0.000426182
-0.000564483
-0.000713847
-0.000841249
-0.000958776
-0.00107654
-0.00116911
-0.00124695
-0.00131581
-0.00136086
-0.00138893
-0.00139993
-0.00139099
-0.00136433
-0.00131316
-0.00124713
-0.00116351
-0.00104842
-0.000924204
-0.000783209
-0.000604466
-0.000422862
-0.000226134
1.34137e-05
0.000248947
0.000496828
0.00079061
0.00107284
0.00136325
0.00169982
0.00201675
0.00233617
0.00266683
0.00303314
0.00336322
0.00369739
0.0040594
0.00437744
0.00469108
0.00502161
0.00530278
0.00557069
0.00584224
0.00606265
0.00626178
0.00645057
0.00659097
0.00670425
0.00679444
0.00684384
0.00686371
0.00685096
0.0068095
0.0067403
0.00663388
0.00651408
0.00637262
0.00619543
0.00602158
0.00583591
0.00562243
0.00542822
0.00523468
0.00502715
0.00485183
0.00469054
0.00453361
0.00441657
0.00432575
0.00425983
0.0042357
0.00424914
0.000535057
0.000456898
0.000361147
0.000237579
0.000115292
-1.44714e-05
-0.0001639
-0.000298634
-0.00043104
-0.00057297
-0.00069252
-0.000802744
-0.000912964
-0.000998692
-0.001071
-0.00113497
-0.00117616
-0.00120185
-0.00121174
-0.0012027
-0.00117722
-0.00112896
-0.00106676
-0.000987824
-0.000879469
-0.000762836
-0.000629719
-0.000461098
-0.000290481
-0.000104357
0.000122299
0.000343962
0.000579113
0.000858003
0.00112417
0.00140046
0.00172104
0.00202057
0.00232529
0.00267153
0.00298842
0.00330418
0.00362153
0.0039683
0.00427324
0.00457197
0.00488913
0.00515928
0.00541511
0.00567606
0.0058882
0.00607883
0.00626044
0.0063958
0.00650463
0.00659149
0.00663934
0.00665894
0.0066468
0.00660725
0.00654166
0.00643949
0.00632466
0.00618992
0.00601977
0.00585302
0.00567578
0.0054705
0.00528377
0.00509809
0.00489728
0.00472708
0.00456993
0.00441456
0.00429686
0.00420306
0.00413022
0.0040968
0.00409718
0.000766313
0.000655165
0.000535591
0.000393227
0.000260012
0.000124679
-2.68925e-05
-0.000160793
-0.00028977
-0.000426456
-0.00054085
-0.000645029
-0.000748632
-0.000829449
-0.00089683
-0.000956141
-0.000995052
-0.0010188
-0.00102755
-0.00101989
-0.000996175
-0.000950847
-0.000893874
-0.000820474
-0.000719046
-0.000611232
-0.000487095
-0.000328978
-0.000170214
4.06912e-06
0.000217303
0.000424841
0.000646059
0.00090945
0.00116013
0.0014213
0.00172528
0.00200897
0.00229836
0.00259528
0.00292961
0.00323083
0.00353312
0.00386574
0.0041578
0.00444325
0.00474876
0.0050084
0.00525347
0.00550579
0.0057103
0.00589316
0.00606946
0.00620032
0.00630461
0.00638949
0.00643597
0.00645422
0.00644323
0.00640522
0.00634114
0.00624276
0.00613182
0.00600079
0.00583615
0.00567462
0.00550206
0.00530245
0.00512059
0.00493853
0.00474107
0.00457281
0.00441535
0.00425768
0.0041358
0.00403444
0.00395001
0.00390283
0.00388418
0.00098494
0.000843734
0.000699875
0.000538328
0.000392902
0.000249104
9.27834e-05
-4.29175e-05
-0.000171875
-0.000306362
-0.000418017
-0.00051911
-0.000618804
-0.000696217
-0.000760856
-0.000817684
-0.00085473
-0.000877919
-0.000887214
-0.000880262
-0.000858981
-0.000817794
-0.00076439
-0.000696548
-0.00060281
-0.00050123
-0.000385496
-0.000238156
-8.7794e-05
7.57971e-05
0.000275901
0.000473561
0.000682535
0.000931349
0.00117149
0.00141971
0.00170867
0.00198199
0.00225863
0.00257356
0.0028658
0.0031553
0.00344943
0.00376928
0.00405128
0.00433029
0.00462531
0.00487706
0.00511758
0.00536208
0.00556107
0.00574123
0.00591248
0.00604014
0.00614337
0.00622582
0.0062712
0.00628973
0.00627858
0.00624115
0.00617836
0.00608152
0.00597225
0.00584305
0.00568083
0.0055212
0.00535024
0.00515264
0.00497161
0.00478965
0.00459184
0.0044214
0.00426063
0.00409765
0.00396821
0.0038577
0.00375994
0.00369683
0.00365968
0.00120557
0.0010338
0.000865459
0.000682455
0.00052314
0.000369314
0.000205325
6.60437e-05
-6.46957e-05
-0.000199624
-0.000310056
-0.000409581
-0.000507356
-0.000582607
-0.000645572
-0.000701193
-0.000737479
-0.00076073
-0.000771174
-0.000766053
-0.000747399
-0.000710344
-0.000661762
-0.000599248
-0.000512566
-0.000418669
-0.000310642
-0.000172773
-3.24782e-05
0.000121649
0.000310667
0.000496589
0.00069514
0.000932214
0.00115979
0.0013975
0.00167506
0.0019359
0.00220285
0.00247723
0.00278807
0.00306927
0.00335337
0.00366503
0.00394054
0.00421169
0.00450067
0.0047479
0.00498294
0.00522352
0.00541984
0.00559677
0.00576594
0.00589242
0.00599433
0.00607605
0.00612127
0.00613987
0.00612879
0.00609171
0.00602977
0.00593322
0.00582432
0.00569604
0.00553367
0.00537381
0.00520294
0.00500382
0.00482101
0.00463707
0.00443498
0.00425982
0.00409328
0.00392134
0.00378233
0.00366018
0.0035463
0.00346615
0.00340855
0.00144706
0.00124094
0.00104507
0.000837027
0.000660347
0.00049388
0.000319447
0.000173811
3.93927e-05
-9.78875e-05
-0.000209221
-0.00030849
-0.000405593
-0.000480369
-0.000542652
-0.00059793
-0.000634911
-0.00065915
-0.000671469
-0.000669522
-0.000654517
-0.000622346
-0.000579816
-0.000523802
-0.000445025
-0.000359822
-0.000260785
-0.000133321
-3.70057e-06
0.000139686
0.000316668
0.000490864
0.000677875
0.000902348
0.00111819
0.00134458
0.00161008
0.00186017
0.00211683
0.00238139
0.00268285
0.00295578
0.00323114
0.0035367
0.00380639
0.00407123
0.00435675
0.00460056
0.00483168
0.00507111
0.00526602
0.00544103
0.00561065
0.00573712
0.00583843
0.00592135
0.00596718
0.0059857
0.00597566
0.00593905
0.00587676
0.00578031
0.00567104
0.0055414
0.00537746
0.00521571
0.00504169
0.00483852
0.00465144
0.00446156
0.0042518
0.00406883
0.00389219
0.00370739
0.00355544
0.00341725
0.0032832
0.00318286
0.00310086
0.00165361
0.00141755
0.00119566
0.000965325
0.000772327
0.000592745
0.000408124
0.000255431
0.000115914
-2.46673e-05
-0.000138155
-0.0002388
-0.000336586
-0.000411956
-0.000474967
-0.000531224
-0.000569413
-0.000595611
-0.000610876
-0.000611911
-0.000601005
-0.000574437
-0.000537035
-0.000487445
-0.000416892
-0.000338747
-0.000248135
-0.000130971
-9.7212e-06
0.00012392
0.000289405
0.00045479
0.000631614
0.000844444
0.001052
0.00126871
0.00152347
0.00176671
0.00201518
0.00229948
0.00256725
0.002834
0.00310697
0.00340614
0.00367189
0.00393658
0.00421843
0.00446057
0.00469332
0.00493145
0.00512648
0.00530412
0.00547409
0.0056017
0.00570566
0.0057896
0.00583665
0.00585693
0.00584754
0.0058113
0.00574913
0.00565204
0.00554149
0.00540982
0.00524318
0.00507785
0.00489928
0.00469065
0.00449705
0.00429968
0.00408092
0.00388772
0.00370007
0.00350169
0.00333484
0.00318119
0.00302767
0.00290653
0.00280331
0.00184383
0.00157835
0.0013317
0.00107804
0.000868558
0.000675725
0.000479313
0.000319011
0.000173599
2.80201e-05
-8.83685e-05
-0.000191368
-0.000291332
-0.000368147
-0.000432788
-0.000491168
-0.000531488
-0.000560346
-0.000579278
-0.000584298
-0.000577925
-0.000557219
-0.000526045
-0.000482992
-0.000420411
-0.000350554
-0.000268089
-0.000160397
-4.88975e-05
7.57423e-05
0.000231205
0.000386233
0.000554157
0.000757526
0.000955093
0.00116399
0.00141094
0.00164549
0.00188802
0.00216735
0.00242819
0.00269147
0.00296009
0.00325709
0.0035221
0.00378513
0.00406754
0.00431121
0.00454467
0.0047854
0.00498347
0.00516339
0.00533692
0.00546796
0.00557473
0.00566187
0.00571159
0.005734
0.00572621
0.00569082
0.00562905
0.00553094
0.00541867
0.00528486
0.00511391
0.00494381
0.00475999
0.00454335
0.00434166
0.00413549
0.00390468
0.0036998
0.00349932
0.00328449
0.00310194
0.00293092
0.00275599
0.00261453
0.00248883
0.00203228
0.00173467
0.00146105
0.00118138
0.000953135
0.000745253
0.000534923
0.000365176
0.000212423
6.01371e-05
-6.06743e-05
-0.000167276
-0.000270895
-0.000350497
-0.000417976
-0.000479892
-0.000523603
-0.000556402
-0.000580475
-0.000590677
-0.000590247
-0.000576999
-0.00055313
-0.000518135
-0.000465249
-0.000404494
-0.00033173
-0.0002353
-0.00013391
-1.97277e-05
0.000123977
0.000268956
0.000426784
0.000619163
0.000807907
0.00100823
0.00124622
0.00147425
0.00171081
0.00195741
0.00224123
0.00250171
0.00276672
0.00306487
0.00333032
0.0035931
0.00387991
0.00412689
0.00436291
0.00461029
0.00481353
0.00499773
0.00517861
0.00531525
0.00542649
0.00551992
0.00557408
0.00559958
0.00559532
0.00556178
0.00550028
0.00540165
0.00528759
0.00515022
0.00497394
0.00479783
0.00460608
0.00437901
0.00416693
0.00394826
0.00370195
0.00348233
0.00326479
0.00302949
0.00282797
0.00263535
0.00243509
0.00227052
0.00211885
0.00217613
0.00185033
0.00155179
0.0012503
0.0010048
0.000782636
0.000560337
0.00038105
0.000220853
6.24199e-05
-6.36777e-05
-0.000174409
-0.000281822
-0.000365255
-0.000436158
-0.000501958
-0.000549925
-0.00058706
-0.000616519
-0.000632405
-0.000637985
-0.000632163
-0.000615664
-0.000588428
-0.00054484
-0.00049281
-0.000429107
-0.000343169
-0.000251077
-0.000146447
-1.34003e-05
0.000122762
0.000271567
0.000454314
0.000635879
0.000828783
0.00105932
0.00128287
0.00151457
0.00178499
0.00203931
0.0022981
0.00256597
0.00286307
0.00313006
0.00339881
0.00368819
0.00393957
0.00418376
0.00443648
0.00464597
0.00483911
0.00502665
0.00516991
0.00528915
0.00538871
0.00544818
0.00547904
0.00547857
0.00544743
0.00538733
0.00528861
0.00517284
0.00503214
0.00485095
0.00466836
0.0044684
0.00423129
0.00400781
0.0037764
0.00351509
0.00327941
0.00304522
0.00279047
0.00256872
0.00235627
0.00213274
0.00194448
0.00177059
0.00228992
0.00193712
0.00161531
0.00129127
0.00102935
0.000793288
0.000557982
0.000369597
0.000201554
3.57734e-05
-9.5547e-05
-0.000211213
-0.000323635
-0.000411135
-0.000486417
-0.000557214
-0.000609882
-0.000652301
-0.000688067
-0.000710219
-0.000722642
-0.000724891
-0.00071645
-0.000697596
-0.000663602
-0.000621092
-0.000566768
-0.000491177
-0.000409319
-0.000314146
-0.000191072
-6.48477e-05
7.55525e-05
0.000249992
0.000423035
0.000609744
0.000834898
0.00105242
0.00128113
0.00154997
0.00180089
0.00206084
0.00232923
0.0026295
0.00290103
0.00317392
0.00347027
0.00372931
0.00398058
0.00424293
0.00446192
0.00466375
0.00486175
0.00501452
0.00514225
0.00525094
0.00531793
0.00535515
0.0053603
0.00533292
0.0052753
0.00517703
0.00505998
0.00491672
0.00472986
0.00454046
0.00433242
0.00408341
0.00384779
0.00360298
0.00332417
0.00307178
0.00281958
0.00254278
0.00230082
0.00206678
0.00181802
0.00160724
0.00140949
0.00237801
0.00199633
0.00164951
0.00130054
0.00102082
0.000769545
0.000519343
0.000320781
0.000143748
-3.11029e-05
-0.000168614
-0.000290403
-0.000409637
-0.000502184
-0.000583208
-0.000661036
-0.000719434
-0.000768726
-0.000813134
-0.00084259
-0.000863651
-0.000876616
-0.000877158
-0.000868619
-0.000847118
-0.000814767
-0.000771775
-0.00070957
-0.000638079
-0.000554181
-0.000444082
-0.000327189
-0.000196688
-3.32906e-05
0.000132798
0.000312352
0.000529909
0.000744082
0.000969632
0.00123581
0.00148479
0.00174832
0.0020173
0.00232561
0.00260334
0.00288135
0.0031902
0.00345948
0.00371988
0.00399777
0.00422948
0.00444274
0.00465697
0.00482273
0.00496182
0.0050846
0.0051623
0.0052082
0.00522259
0.00520128
0.00514736
0.00505132
0.00493401
0.00478785
0.00459508
0.00439834
0.00418024
0.00391721
0.00366749
0.0034059
0.00310599
0.00283386
0.0025594
0.00225615
0.0019905
0.00173047
0.00145201
0.00121558
0.000990141
0.00241958
0.00201179
0.0016423
0.00127348
0.000976833
0.000711883
0.000449824
0.000240624
5.54504e-05
-0.000126778
-0.000271703
-0.0003992
-0.00052428
-0.000623438
-0.00070996
-0.000794101
-0.000859872
-0.00091575
-0.000967999
-0.00100634
-0.00103558
-0.00105817
-0.00106916
-0.00107027
-0.0010598
-0.00103892
-0.00100644
-0.000955797
-0.000895826
-0.000822306
-0.000723081
-0.000616471
-0.000495011
-0.00034041
-0.000181953
-8.8339e-06
0.000203367
0.000413875
0.000636696
0.000877907
0.00116371
0.00141768
0.00169443
0.00200592
0.00229016
0.00258042
0.00289773
0.00317764
0.00345364
0.00374405
0.00398908
0.00421926
0.00444792
0.00462753
0.00478229
0.00491861
0.00500806
0.00506571
0.00508984
0.00507567
0.00502734
0.00493479
0.00481808
0.00467004
0.00447307
0.00426941
0.00404181
0.00376666
0.00350267
0.00322491
0.00290595
0.00261336
0.00231784
0.00199049
0.00170005
0.00141629
0.00111103
0.000847703
0.000598196
0.00241983
0.00198798
0.00159731
0.00120785
0.000896113
0.000617758
0.00034293
0.00012452
-6.93303e-05
-0.000260003
-0.000411367
-0.000545601
-0.000677727
-0.000782903
-0.000876231
-0.000967966
-0.00104079
-0.00110469
-0.00116607
-0.00121315
-0.00125203
-0.00128548
-0.00130688
-0.001319
-0.00132065
-0.00131133
-0.00129048
-0.00125222
-0.00120404
-0.00114166
-0.00105374
-0.000957928
-0.000845753
-0.000699831
-0.000549829
-0.000382718
-0.000175032
3.06528e-05
0.000251964
0.000517749
0.000774621
0.00103711
0.00131893
0.00163806
0.00193167
0.00223153
0.00256222
0.00285627
0.00314621
0.00345421
0.0037164
0.00396304
0.00421097
0.00440819
0.00457931
0.00473338
0.00483788
0.0049088
0.00494579
0.00494125
0.00490041
0.00481308
0.00469846
0.00455024
0.00434924
0.00413929
0.00390315
0.00361469
0.0033365
0.00304252
0.0027023
0.00238928
0.0020716
0.0017175
0.0014028
0.00109337
0.000758817
0.000470071
0.000194071
0.00236824
0.00191133
0.0014982
0.00108578
0.000758367
0.00046565
0.000176134
-5.19146e-05
-0.000255394
-0.000456473
-0.000614754
-0.00075691
-0.000898392
-0.00101022
-0.00111189
-0.00121406
-0.00129473
-0.00136857
-0.0014425
-0.00149919
-0.00154993
-0.00159823
-0.00163081
-0.00165639
-0.00167463
-0.00167735
-0.00167067
-0.0016496
-0.00161313
-0.00156432
-0.00149259
-0.00140668
-0.00130589
-0.00117329
-0.00102977
-0.000870145
-0.00067098
-0.000466803
-0.000247529
1.63053e-05
0.000277176
0.000549687
0.000828927
0.00116251
0.00146752
0.0017771
0.00212888
0.00244042
0.00274626
0.00308026
0.00336414
0.00363065
0.00390636
0.00412638
0.00431807
0.00449766
0.00462236
0.00471068
0.00476671
0.00477605
0.00474576
0.00466749
0.00455763
0.00441047
0.00420658
0.00399095
0.00374541
0.00344206
0.00314827
0.00283522
0.00247002
0.00213357
0.00178948
0.00140351
0.00106071
0.000720757
0.00035131
3.3261e-05
-0.000273891
0.00227382
0.00179302
0.00136019
0.000930649
0.000587124
0.000282289
-1.80299e-05
-0.000257268
-0.000468671
-0.000677503
-0.000844949
-0.000993712
-0.0011425
-0.00126366
-0.00137255
-0.00148322
-0.00157469
-0.00165738
-0.00174175
-0.0018112
-0.00187268
-0.0019333
-0.00198045
-0.00201831
-0.00205014
-0.00206848
-0.00207481
-0.00206751
-0.00204649
-0.00201025
-0.00195101
-0.00187883
-0.00178868
-0.00166561
-0.00153228
-0.00137981
-0.00118548
-0.000986188
-0.000769011
-0.000503793
-0.000241285
3.80319e-05
0.000325514
0.000666142
0.000982137
0.00131048
0.00167611
0.00200471
0.00233474
0.00268905
0.00299454
0.00328813
0.00358786
0.00383113
0.00404924
0.00425267
0.0043986
0.00450872
0.00458405
0.0046087
0.00459198
0.00452455
0.00442093
0.00427675
0.00407273
0.00385258
0.00359888
0.00328396
0.00297504
0.00264408
0.0022574
0.00189714
0.00152825
0.00111403
0.000741819
0.000373788
-2.68311e-05
-0.00037637
-0.000711295
0.00212851
0.0016271
0.00117553
0.00072786
0.000371267
5.40169e-05
-0.000258138
-0.000505988
-0.000726432
-0.000944219
-0.00111875
-0.00127576
-0.0014333
-0.0015621
-0.00168021
-0.00180106
-0.00190193
-0.00199569
-0.0020924
-0.00217337
-0.00224792
-0.00232295
-0.00238354
-0.00243601
-0.00248362
-0.0025166
-0.00253814
-0.00254677
-0.00254048
-0.00251867
-0.00247392
-0.00241506
-0.00233692
-0.00222497
-0.0021019
-0.00195716
-0.00176858
-0.00157472
-0.0013593
-0.00109267
-0.000829502
-0.000547293
-0.00023611
0.000101602
0.000431352
0.000774325
0.0011596
0.00150906
0.00186037
0.00224125
0.00257295
0.00289236
0.00322246
0.00349396
0.00373896
0.00397216
0.00414408
0.00427792
0.00437747
0.00442149
0.00442106
0.00436782
0.00427342
0.00413493
0.00393225
0.00370941
0.00344951
0.00312259
0.00279954
0.00245129
0.0020412
0.00165778
0.00126323
0.000817845
0.000417165
1.88076e-05
-0.000416288
-0.000795664
-0.00116174
0.00190307
0.00138104
0.000909967
0.000441855
7.23933e-05
-0.000257913
-0.000584024
-0.000840312
-0.00107063
-0.00129977
-0.00148141
-0.00164791
-0.00181723
-0.001954
-0.00208306
-0.00221798
-0.00232879
-0.00243589
-0.00254972
-0.00264292
-0.00273327
-0.00282839
-0.00290305
-0.00297323
-0.00304313
-0.00309108
-0.00313113
-0.00316287
-0.00317104
-0.00316699
-0.00314424
-0.00309758
-0.00303451
-0.0029411
-0.00282592
-0.00269138
-0.00251533
-0.00232301
-0.00211074
-0.00184823
-0.0015786
-0.00129143
-0.000983438
-0.000627726
-0.000274566
8.17621e-05
0.000496932
0.000871227
0.00124498
0.00166397
0.00202778
0.0023768
0.00274943
0.00305644
0.00333394
0.00360863
0.00381427
0.00397808
0.00411188
0.00418228
0.00420368
0.00417176
0.00409169
0.00396245
0.00376455
0.00354148
0.00327619
0.00293689
0.00259932
0.00223185
0.00179462
0.00138528
0.000960904
0.00047834
4.48774e-05
-0.000389231
-0.000866003
-0.0012801
-0.00168314
0.00164323
0.00109977
0.000612654
0.000130637
-0.000253941
-0.000594226
-0.000929622
-0.00119755
-0.0014351
-0.001672
-0.0018646
-0.00203829
-0.00221616
-0.00236522
-0.00250314
-0.00264877
-0.00277433
-0.00289275
-0.00301989
-0.00313061
-0.00323478
-0.00334555
-0.00344017
-0.00352616
-0.00361322
-0.00368264
-0.00373952
-0.00378864
-0.00381836
-0.00383078
-0.00382391
-0.00379696
-0.00374822
-0.00366711
-0.00356753
-0.00344312
-0.00327354
-0.00309024
-0.00288181
-0.0026178
-0.00234846
-0.00205723
-0.00173616
-0.00134646
-0.0010095
-0.000623206
-0.000190136
0.000207343
0.000614823
0.00106213
0.00145689
0.00184554
0.00225365
0.00259584
0.00291429
0.00322655
0.00346661
0.00366701
0.0038342
0.00393253
0.00398053
0.00397171
0.00390796
0.00379114
0.00360166
0.00338017
0.00311158
0.00276456
0.00241351
0.00202845
0.00156916
0.0011337
0.000681342
0.000166653
-0.000301247
-0.000768639
-0.00128227
-0.00173431
-0.00217109
0.0013246
0.000764604
0.000261487
-0.000235674
-0.000630844
-0.00098235
-0.00132833
-0.00160393
-0.00185078
-0.00209695
-0.00229705
-0.00248053
-0.00266883
-0.00282711
-0.00297687
-0.00313549
-0.00327297
-0.00340595
-0.00354915
-0.00367468
-0.00379612
-0.00392574
-0.00403767
-0.00414303
-0.00425087
-0.00433927
-0.00441648
-0.00448692
-0.00453598
-0.00456812
-0.0045812
-0.00457222
-0.00454053
-0.00447566
-0.00439054
-0.00427819
-0.00411845
-0.00394378
-0.00373997
-0.00347679
-0.00320801
-0.00291189
-0.00258395
-0.00219256
-0.0017919
-0.00142645
-0.000965928
-0.000541002
-0.000104886
0.000378541
0.000809718
0.00123502
0.00168693
0.00207073
0.00242964
0.00278775
0.00306895
0.00330779
0.0035158
0.00364826
0.00372626
0.00374623
0.00370381
0.00360328
0.00342553
0.00320917
0.00294043
0.00258645
0.00222413
0.00182304
0.00134011
0.000879986
0.000399151
-0.000150945
-0.000651884
-0.00115511
-0.00170987
-0.00219799
-0.00267288
0.000896038
0.000320624
-0.000198654
-0.000713316
-0.00111805
-0.00148112
-0.00184012
-0.0021226
-0.0023795
-0.00263796
-0.00284513
-0.00303974
-0.00324243
-0.00340987
-0.00357347
-0.00375023
-0.00389987
-0.00405009
-0.0042158
-0.00435654
-0.00449855
-0.00465481
-0.00478444
-0.004913
-0.00505071
-0.00515818
-0.00526001
-0.00536197
-0.00542989
-0.00548625
-0.00553028
-0.00553784
-0.00552764
-0.00549025
-0.00541683
-0.00532044
-0.00518135
-0.00501077
-0.00481437
-0.00456146
-0.00428647
-0.0039865
-0.00365962
-0.00324662
-0.00285252
-0.00241539
-0.00195364
-0.00149374
-0.00102974
-0.000494882
-2.02399e-05
0.000445064
0.000957508
0.00139242
0.00179853
0.00221946
0.00255268
0.00283872
0.003103
0.00328026
0.00339703
0.00345784
0.00344541
0.00336796
0.00320916
0.00300322
0.00273776
0.00237859
0.0020064
0.00158886
0.0010791
0.000592121
7.90468e-05
-0.000513391
-0.00105209
-0.00159717
-0.00220225
-0.00273247
-0.00325266
0.000445905
-0.000148165
-0.000679148
-0.00120407
-0.00162287
-0.00199336
-0.00235989
-0.0026546
-0.00291779
-0.00318387
-0.00340407
-0.00360633
-0.00381879
-0.00400193
-0.00417606
-0.00436584
-0.00453484
-0.00469912
-0.00488134
-0.00504535
-0.00520485
-0.00538074
-0.00553712
-0.00568603
-0.00584553
-0.00598223
-0.00610619
-0.00623069
-0.00632872
-0.00640743
-0.00647276
-0.00650906
-0.00651933
-0.00649948
-0.00645057
-0.00637019
-0.00624194
-0.00608837
-0.00590061
-0.00564876
-0.00537989
-0.00507832
-0.00473579
-0.00431982
-0.00391271
-0.00346899
-0.00292091
-0.00247731
-0.00196761
-0.00139693
-0.000881731
-0.000362173
0.000198389
0.000682633
0.0011482
0.00162391
0.00200897
0.00235216
0.0026694
0.00289279
0.00305582
0.00315834
0.00317828
0.00312905
0.00299322
0.00280017
0.00254131
0.00218295
0.00180253
0.00137079
0.000841014
0.000327229
-0.000216065
-0.000844005
-0.0014225
-0.00200697
-0.00265597
-0.00323259
-0.00379491
-6.89306e-05
-0.000674793
-0.0012187
-0.00175539
-0.00218196
-0.00256239
-0.00293811
-0.00323937
-0.00351217
-0.00378786
-0.00401591
-0.00422966
-0.00445436
-0.00464835
-0.00483722
-0.0050431
-0.00522676
-0.00540957
-0.00561212
-0.0057947
-0.00597643
-0.00617654
-0.00635498
-0.00652915
-0.00671585
-0.0068772
-0.00702825
-0.00718143
-0.00730528
-0.00741114
-0.00750445
-0.00756576
-0.00760083
-0.00760546
-0.00757812
-0.00751722
-0.00740653
-0.00726801
-0.00709109
-0.00684615
-0.0065825
-0.0062798
-0.00593269
-0.00550657
-0.00508389
-0.00462193
-0.00407565
-0.00353944
-0.00303017
-0.00240974
-0.00184742
-0.00127972
-0.000660439
-0.000118998
0.000403288
0.000944929
0.00139081
0.00179205
0.00217291
0.00245137
0.00266435
0.00281753
0.00287766
0.00286171
0.00275493
0.00258073
0.00233308
0.00197813
0.00159349
0.00115036
0.00059976
6.17419e-05
-0.00051163
-0.00117861
-0.00179489
-0.00242144
-0.0031197
-0.00374049
-0.00435025
-0.000723919
-0.00133924
-0.00189561
-0.00244648
-0.00287892
-0.00326935
-0.00365707
-0.00396345
-0.00424656
-0.00453558
-0.00477053
-0.0049972
-0.00523915
-0.00544345
-0.00564929
-0.00587788
-0.00607596
-0.00628036
-0.0065116
-0.00671268
-0.00692051
-0.00715508
-0.00735548
-0.00755957
-0.00778559
-0.00797121
-0.00815473
-0.00835045
-0.00849917
-0.00863808
-0.00877468
-0.00885907
-0.00892505
-0.00897029
-0.00896122
-0.00892564
-0.0088486
-0.00871991
-0.00855868
-0.00836192
-0.0080694
-0.00776857
-0.00743059
-0.00698202
-0.00654379
-0.00607276
-0.00548542
-0.00493158
-0.00435484
-0.00370254
-0.00307132
-0.00245336
-0.00175352
-0.00114347
-0.000557615
7.34129e-05
0.000594535
0.00106488
0.001532
0.00188073
0.00215621
0.00237914
0.00249297
0.00252151
0.00245684
0.00231099
0.00208186
0.00173589
0.00135127
0.00089892
0.000325713
-0.000237467
-0.00084368
-0.00155737
-0.00221631
-0.0028914
-0.00365039
-0.00432261
-0.00498852
-0.00138351
-0.00201437
-0.00257746
-0.0031346
-0.00358006
-0.00397503
-0.0043684
-0.00468777
-0.00497606
-0.00527248
-0.00552281
-0.00575752
-0.00601041
-0.0062342
-0.00645226
-0.00669619
-0.00691883
-0.00714019
-0.00739134
-0.00762227
-0.00785174
-0.00811038
-0.00834558
-0.00857542
-0.00882876
-0.00905318
-0.00926551
-0.00949032
-0.00968016
-0.00984928
-0.0100145
-0.0101399
-0.0102351
-0.0103057
-0.010334
-0.0103235
-0.0102648
-0.0101657
-0.0100217
-0.00980577
-0.00955662
-0.00926096
-0.00890973
-0.00846599
-0.0080169
-0.00751409
-0.00691091
-0.00632874
-0.00570315
-0.00497763
-0.00434958
-0.00363941
-0.00287893
-0.00220441
-0.00153723
-0.00083143
-0.000237058
0.000317191
0.000862462
0.00128181
0.00163121
0.00192219
0.00209207
0.00217319
0.00215427
0.00203992
0.00183452
0.00150461
0.00112248
0.000664065
7.70452e-05
-0.000510823
-0.00114762
-0.00189889
-0.00260279
-0.00332401
-0.0041351
-0.00486407
-0.00558295
-0.00211123
-0.00274856
-0.0033212
-0.00388643
-0.00433659
-0.00474017
-0.00514124
-0.00546594
-0.0057642
-0.00607055
-0.00632905
-0.00657702
-0.00684399
-0.00708025
-0.00731607
-0.00757933
-0.00781945
-0.00806358
-0.00833964
-0.00859323
-0.00885039
-0.00913927
-0.00940194
-0.00966382
-0.00995188
-0.0102078
-0.0104554
-0.0107179
-0.0109418
-0.0111474
-0.0113511
-0.0115108
-0.0116412
-0.0117477
-0.0118076
-0.0118274
-0.011798
-0.011724
-0.0116011
-0.0114234
-0.0111678
-0.0108792
-0.0105306
-0.0100835
-0.00962303
-0.00910434
-0.00847524
-0.00786049
-0.00719873
-0.00642769
-0.00570218
-0.00494861
-0.00413414
-0.00338773
-0.00264576
-0.00185061
-0.00117169
-0.000535126
0.000102842
0.000604838
0.00103113
0.00140329
0.00164049
0.0017801
0.00181694
0.00174334
0.00156806
0.00125972
0.000886598
0.000426691
-0.0001735
-0.00078187
-0.00144799
-0.00224037
-0.00298633
-0.00375617
-0.00462579
-0.00540879
-0.0061867
-0.00300843
-0.00364861
-0.0042298
-0.00480559
-0.00525758
-0.00566961
-0.00608164
-0.00640946
-0.00671834
-0.0070391
-0.00730408
-0.0075668
-0.00785398
-0.00810142
-0.00835738
-0.00864809
-0.00890468
-0.0091749
-0.00948626
-0.00976157
-0.0100508
-0.0103827
-0.0106719
-0.0109712
-0.0113094
-0.0115954
-0.0118847
-0.0122029
-0.0124588
-0.0127084
-0.0129708
-0.0131619
-0.0133354
-0.0134996
-0.013587
-0.0136451
-0.0136675
-0.0136125
-0.013518
-0.0133803
-0.0131296
-0.0128538
-0.0125286
-0.0120647
-0.0115955
-0.0110776
-0.0104046
-0.00975548
-0.0090677
-0.00822473
-0.00744105
-0.00663409
-0.00566932
-0.00488145
-0.00405669
-0.00314142
-0.00236034
-0.00162921
-0.000867145
-0.000262283
0.000257212
0.000738902
0.00106305
0.0012777
0.00139176
0.00137435
0.00124191
0.000966794
0.000611377
0.000156201
-0.000456054
-0.00108353
-0.00177976
-0.00262109
-0.00341369
-0.00423862
-0.00518075
-0.00602618
-0.00687339
-0.00388943
-0.0045418
-0.00512424
-0.0057021
-0.00616614
-0.00657954
-0.00699519
-0.00733692
-0.00764962
-0.00797739
-0.00826022
-0.0085311
-0.00883007
-0.00910092
-0.00937055
-0.00967858
-0.00996508
-0.010255
-0.0105894
-0.0109015
-0.0112166
-0.011577
-0.0119097
-0.0122405
-0.0126119
-0.0129476
-0.0132732
-0.0136278
-0.0139378
-0.0142269
-0.0145267
-0.0147736
-0.0149873
-0.0151868
-0.015328
-0.0154234
-0.0154747
-0.0154664
-0.0154017
-0.0152602
-0.0150641
-0.0148051
-0.0144737
-0.0140292
-0.013558
-0.0130104
-0.0123308
-0.0116555
-0.0109116
-0.0100316
-0.00919569
-0.00831104
-0.00730142
-0.00632561
-0.00547515
-0.00446501
-0.00358694
-0.00273962
-0.00186987
-0.00116405
-0.000534485
4.97688e-05
0.000462432
0.000764436
0.000957179
0.000999583
0.000917963
0.000683643
0.000349413
-9.64891e-05
-0.0007099
-0.00135523
-0.00207898
-0.00295727
-0.00379876
-0.00467653
-0.00567946
-0.00659356
-0.00750701
-0.00483909