/*--------------------------------*- C++ -*----------------------------------*\
  =========                 |
  \\      /  F ield         | OpenFOAM: The Open Source CFD Toolbox
   \\    /   O peration     | Website:  https://openfoam.org
    \\  /    A nd           | Version:  6
     \\/     M anipulation  |
\*---------------------------------------------------------------------------*/
FoamFile
{
    version     2.0;
    format      ascii;
    class       volVectorField;
    location    "0";
    object      U;
}
// * * * * * * * * * * * * * * * * * * * * * * * * * * * * * * * * * * * * * //

dimensions      [0 1 -1 0 0 0 0];

internalField   nonuniform List<vector> 
6241
(
(4.0756e-06 -4.06545e-06 0)
(2.55653e-05 -8.20543e-06 0)
(4.93261e-05 -6.54835e-06 0)
(6.18759e-05 -1.23933e-06 0)
(5.32542e-05 4.79525e-06 0)
(2.30266e-05 1.12414e-05 0)
(-3.67986e-05 1.83262e-05 0)
(-0.000112749 2.41542e-05 0)
(-0.000209264 2.97582e-05 0)
(-0.000338602 3.53715e-05 0)
(-0.000470324 3.94773e-05 0)
(-0.000618148 4.34443e-05 0)
(-0.000798398 4.72629e-05 0)
(-0.000967427 4.96413e-05 0)
(-0.0011488 5.20759e-05 0)
(-0.00136144 5.43522e-05 0)
(-0.00155089 5.53001e-05 0)
(-0.00175037 5.64697e-05 0)
(-0.00198003 5.75084e-05 0)
(-0.00217599 5.73113e-05 0)
(-0.00238094 5.74361e-05 0)
(-0.00261512 5.74432e-05 0)
(-0.00280607 5.62881e-05 0)
(-0.00300576 5.54885e-05 0)
(-0.00323361 5.45465e-05 0)
(-0.00340933 5.25218e-05 0)
(-0.00359393 5.08319e-05 0)
(-0.00380509 4.89303e-05 0)
(-0.00395581 4.60654e-05 0)
(-0.00411563 4.34766e-05 0)
(-0.00429955 4.05666e-05 0)
(-0.0044156 3.68857e-05 0)
(-0.00454089 3.34006e-05 0)
(-0.00468679 2.94568e-05 0)
(-0.00475886 2.50327e-05 0)
(-0.00484024 2.07172e-05 0)
(-0.00493769 1.5794e-05 0)
(-0.00495759 1.079e-05 0)
(-0.00498691 5.81292e-06 0)
(-0.00502697 8.60705e-08 0)
(-0.00498879 -5.23e-06 0)
(-0.00496032 -1.05898e-05 0)
(-0.00493951 -1.62133e-05 0)
(-0.00483816 -2.20497e-05 0)
(-0.0047499 -2.73757e-05 0)
(-0.00466697 -3.29995e-05 0)
(-0.00450441 -3.83097e-05 0)
(-0.00435934 -4.31047e-05 0)
(-0.00421834 -4.81908e-05 0)
(-0.00400237 -5.24441e-05 0)
(-0.00380905 -5.61812e-05 0)
(-0.00361997 -6.01687e-05 0)
(-0.00336432 -6.28621e-05 0)
(-0.00313686 -6.50631e-05 0)
(-0.00291527 -6.74529e-05 0)
(-0.00263889 -6.81951e-05 0)
(-0.00239595 -6.85142e-05 0)
(-0.00216183 -6.89564e-05 0)
(-0.00188721 -6.75467e-05 0)
(-0.00165023 -6.58431e-05 0)
(-0.00142583 -6.4209e-05 0)
(-0.00117662 -6.06911e-05 0)
(-0.000967346 -5.70738e-05 0)
(-0.000774545 -5.3497e-05 0)
(-0.000572601 -4.81809e-05 0)
(-0.000410322 -4.30214e-05 0)
(-0.000267728 -3.79102e-05 0)
(-0.000130141 -3.13748e-05 0)
(-2.87689e-05 -2.53096e-05 0)
(5.12963e-05 -1.93673e-05 0)
(0.000115469 -1.2509e-05 0)
(0.000150643 -6.52124e-06 0)
(0.000165914 -9.08513e-07 0)
(0.000160565 4.73159e-06 0)
(0.000138755 8.82174e-06 0)
(0.000105234 1.16326e-05 0)
(6.06229e-05 1.22142e-05 0)
(2.39071e-05 9.29379e-06 0)
(2.51851e-06 2.51968e-06 0)
(8.23729e-06 -2.55929e-05 0)
(4.21163e-05 -4.20135e-05 0)
(6.95415e-05 -2.77813e-05 0)
(6.43089e-05 8.67238e-06 0)
(1.2625e-05 5.04247e-05 0)
(-9.19301e-05 9.56338e-05 0)
(-0.00027136 0.000145719 0)
(-0.000488873 0.000188408 0)
(-0.000756827 0.00022867 0)
(-0.00110955 0.000269001 0)
(-0.00147203 0.000300768 0)
(-0.00187019 0.00032951 0)
(-0.0023521 0.000356666 0)
(-0.00281688 0.000376651 0)
(-0.00330156 0.000394194 0)
(-0.00386468 0.000409499 0)
(-0.00439009 0.000419385 0)
(-0.0049216 0.000427499 0)
(-0.005524 0.000433011 0)
(-0.00607438 0.000434596 0)
(-0.00661936 0.000434842 0)
(-0.00722572 0.000432097 0)
(-0.00777072 0.000426553 0)
(-0.00830051 0.000419829 0)
(-0.00887981 0.000409589 0)
(-0.00939202 0.000397406 0)
(-0.00988028 0.000384012 0)
(-0.0104033 0.000366453 0)
(-0.0108564 0.000347695 0)
(-0.0112774 0.000327632 0)
(-0.0117154 0.000302724 0)
(-0.012083 0.000277398 0)
(-0.0124113 0.000250755 0)
(-0.0127361 0.000218699 0)
(-0.0129927 0.000187145 0)
(-0.013204 0.000154462 0)
(-0.0133895 0.000116076 0)
(-0.0135125 7.92899e-05 0)
(-0.0135861 4.18442e-05 0)
(-0.0136116 -1.17856e-06 0)
(-0.0135835 -4.14147e-05 0)
(-0.0135053 -8.15495e-05 0)
(-0.0133734 -0.00012271 0)
(-0.013171 -0.000167563 0)
(-0.0129364 -0.000207355 0)
(-0.0126468 -0.000247171 0)
(-0.012274 -0.00028906 0)
(-0.0118914 -0.000324901 0)
(-0.0114575 -0.000359634 0)
(-0.0109339 -0.000394366 0)
(-0.0104258 -0.000422443 0)
(-0.00987535 -0.000448306 0)
(-0.00923666 -0.000471843 0)
(-0.0086393 -0.000488694 0)
(-0.00801398 -0.00050243 0)
(-0.0073099 -0.000511546 0)
(-0.0066713 -0.000514653 0)
(-0.00602279 -0.000514117 0)
(-0.00531286 -0.00050702 0)
(-0.00468793 -0.000495329 0)
(-0.00407295 -0.000479962 0)
(-0.00342009 -0.000456742 0)
(-0.00286453 -0.000430998 0)
(-0.00233806 -0.000402091 0)
(-0.00180076 -0.000364941 0)
(-0.00136393 -0.000327813 0)
(-0.000971824 -0.000288595 0)
(-0.000595852 -0.000241883 0)
(-0.000313252 -0.000198048 0)
(-8.4401e-05 -0.000153865 0)
(0.000106318 -0.000104529 0)
(0.000221866 -6.13199e-05 0)
(0.000285363 -2.08044e-05 0)
(0.000301812 1.94451e-05 0)
(0.000274883 4.88001e-05 0)
(0.000216641 6.85509e-05 0)
(0.000133074 7.43189e-05 0)
(5.95825e-05 5.95928e-05 0)
(9.27876e-06 2.38916e-05 0)
(6.63938e-06 -4.95315e-05 0)
(2.81053e-05 -6.95223e-05 0)
(2.73199e-05 -2.69824e-05 0)
(-3.23589e-05 6.47108e-05 0)
(-0.000156572 0.000168054 0)
(-0.000356164 0.000279192 0)
(-0.000671959 0.000403991 0)
(-0.00103873 0.000512215 0)
(-0.00147873 0.000612837 0)
(-0.00205159 0.000715123 0)
(-0.00263483 0.000798183 0)
(-0.00327141 0.000870585 0)
(-0.00403984 0.000939971 0)
(-0.00477929 0.000994149 0)
(-0.00554926 0.00103813 0)
(-0.00644186 0.00107686 0)
(-0.00727565 0.00110544 0)
(-0.0081188 0.00112504 0)
(-0.00907063 0.00113782 0)
(-0.00994412 0.00114483 0)
(-0.0108081 0.00114383 0)
(-0.011763 0.00113446 0)
(-0.0126286 0.00112261 0)
(-0.0134677 0.00110333 0)
(-0.0143755 0.00107382 0)
(-0.0151901 0.00104429 0)
(-0.0159619 0.00100756 0)
(-0.0167757 0.000958624 0)
(-0.0174976 0.000911555 0)
(-0.0181609 0.000857524 0)
(-0.018835 0.000789431 0)
(-0.0194232 0.000724883 0)
(-0.019938 0.000653925 0)
(-0.0204282 0.000567603 0)
(-0.0208434 0.000486499 0)
(-0.0211721 0.000400147 0)
(-0.0214387 0.000298129 0)
(-0.0216461 0.000203056 0)
(-0.0217571 0.000104679 0)
(-0.0217699 2.77629e-06 0)
(-0.0217429 -0.000112722 0)
(-0.0216152 -0.000217728 0)
(-0.0213852 -0.000323371 0)
(-0.021083 -0.000441433 0)
(-0.0207111 -0.000545318 0)
(-0.0202394 -0.00064634 0)
(-0.0196691 -0.000757055 0)
(-0.0190666 -0.000850631 0)
(-0.018375 -0.000937628 0)
(-0.0175674 -0.00103004 0)
(-0.01677 -0.00110364 0)
(-0.0159017 -0.0011672 0)
(-0.0149122 -0.00123077 0)
(-0.0139764 -0.00127563 0)
(-0.0129947 -0.00130776 0)
(-0.0119002 -0.00133408 0)
(-0.0108999 -0.00134381 0)
(-0.00988333 -0.00133937 0)
(-0.00877525 -0.0013237 0)
(-0.00779458 -0.0012956 0)
(-0.00682885 -0.0012535 0)
(-0.00580383 -0.00119599 0)
(-0.00492784 -0.00113192 0)
(-0.00409573 -0.00105573 0)
(-0.00324346 -0.000962065 0)
(-0.00254712 -0.000868807 0)
(-0.00191748 -0.000767109 0)
(-0.00130776 -0.000648707 0)
(-0.000844258 -0.000538301 0)
(-0.000459855 -0.000425118 0)
(-0.00012842 -0.00030022 0)
(8.44065e-05 -0.000191599 0)
(0.00022162 -8.91128e-05 0)
(0.000292258 1.2348e-05 0)
(0.00029216 8.64182e-05 0)
(0.000245301 0.000137689 0)
(0.000158988 0.000158062 0)
(7.4784e-05 0.000133304 0)
(1.22455e-05 6.06439e-05 0)
(1.34173e-06 -6.23955e-05 0)
(-8.62438e-06 -6.42078e-05 0)
(-6.55749e-05 3.31544e-05 0)
(-0.000215167 0.000213348 0)
(-0.000443315 0.000409834 0)
(-0.000770539 0.000621435 0)
(-0.00125565 0.000859592 0)
(-0.00179567 0.00106488 0)
(-0.00243348 0.00125945 0)
(-0.00325226 0.00145856 0)
(-0.00407116 0.00161694 0)
(-0.00496647 0.00175957 0)
(-0.00604436 0.00189787 0)
(-0.007066 0.00200021 0)
(-0.00813879 0.00208832 0)
(-0.0093853 0.00216819 0)
(-0.0105282 0.00221952 0)
(-0.0116991 0.00225949 0)
(-0.013029 0.00228881 0)
(-0.0142189 0.0022964 0)
(-0.0154166 0.00229491 0)
(-0.0167543 0.00228035 0)
(-0.0179249 0.00224948 0)
(-0.0190861 0.00221078 0)
(-0.0203631 0.00215594 0)
(-0.021454 0.00208923 0)
(-0.0225194 0.0020151 0)
(-0.0236711 0.00192113 0)
(-0.0246243 0.00181953 0)
(-0.025537 0.00171052 0)
(-0.0265006 0.00157784 0)
(-0.0272602 0.00144227 0)
(-0.0279651 0.00129953 0)
(-0.0286806 0.00112982 0)
(-0.029194 0.000962999 0)
(-0.0296405 0.000789974 0)
(-0.0300538 0.000587997 0)
(-0.0302759 0.000395896 0)
(-0.0304224 0.000199601 0)
(-0.0304916 -2.55194e-05 0)
(-0.0303903 -0.000233159 0)
(-0.0302097 -0.00044183 0)
(-0.0299456 -0.000653938 0)
(-0.0294735 -0.000885563 0)
(-0.0289597 -0.00109127 0)
(-0.0283622 -0.00129578 0)
(-0.0275331 -0.00151031 0)
(-0.0267062 -0.00169502 0)
(-0.0258042 -0.00187314 0)
(-0.0246617 -0.00204986 0)
(-0.0235705 -0.00219475 0)
(-0.0224219 -0.00232764 0)
(-0.0210412 -0.00244689 0)
(-0.0197618 -0.00253501 0)
(-0.0184515 -0.00260657 0)
(-0.0169348 -0.00265281 0)
(-0.0155662 -0.00267189 0)
(-0.0141989 -0.00267159 0)
(-0.0126674 -0.00263642 0)
(-0.0113216 -0.00258138 0)
(-0.0100119 -0.00250661 0)
(-0.00859263 -0.00239092 0)
(-0.0073828 -0.00226561 0)
(-0.00624154 -0.0021231 0)
(-0.00505196 -0.00193833 0)
(-0.00407749 -0.00175635 0)
(-0.00319706 -0.00156282 0)
(-0.00232785 -0.00133156 0)
(-0.00165879 -0.00111693 0)
(-0.00109661 -0.000900107 0)
(-0.000593167 -0.000658039 0)
(-0.000252549 -0.000447981 0)
(-1.2261e-05 -0.000251051 0)
(0.000148366 -5.47016e-05 0)
(0.000207617 9.00155e-05 0)
(0.000201933 0.000193975 0)
(0.000143433 0.000245878 0)
(7.09491e-05 0.000218685 0)
(1.19167e-05 0.000105864 0)
(-4.83542e-06 -5.37819e-05 0)
(-5.17726e-05 -1.11949e-05 0)
(-0.000173059 0.000160012 0)
(-0.000420188 0.00044335 0)
(-0.000758519 0.000745575 0)
(-0.00121365 0.00106704 0)
(-0.00186062 0.00142756 0)
(-0.00256843 0.00174225 0)
(-0.00338587 0.00203795 0)
(-0.00442098 0.00234108 0)
(-0.00545818 0.0025876 0)
(-0.00657581 0.0028057 0)
(-0.00791326 0.00301713 0)
(-0.00919314 0.00317953 0)
(-0.0105187 0.00331446 0)
(-0.012053 0.00343567 0)
(-0.0134805 0.00351968 0)
(-0.0149205 0.00357994 0)
(-0.0165498 0.00362173 0)
(-0.0180358 0.00363723 0)
(-0.0195051 0.00363243 0)
(-0.0211371 0.0036045 0)
(-0.022601 0.00355899 0)
(-0.024022 0.00349549 0)
(-0.0255724 0.00340348 0)
(-0.0269394 0.00330073 0)
(-0.02824 0.0031814 0)
(-0.0296293 0.00302762 0)
(-0.0308276 0.00286902 0)
(-0.0319386 0.0026951 0)
(-0.03309 0.00248099 0)
(-0.0340507 0.0022681 0)
(-0.0349056 0.00204177 0)
(-0.0357468 0.0017709 0)
(-0.0364055 0.00150804 0)
(-0.0369439 0.00123508 0)
(-0.0374112 0.000915802 0)
(-0.0377128 0.000612368 0)
(-0.0378857 0.000303992 0)
(-0.0379331 -1.77435e-05 0)
(-0.0378365 -0.000377514 0)
(-0.037613 -0.000704291 0)
(-0.0372514 -0.00103753 0)
(-0.0367041 -0.00140103 0)
(-0.0360779 -0.0017225 0)
(-0.0353117 -0.00204135 0)
(-0.0343289 -0.00237899 0)
(-0.0333249 -0.00266748 0)
(-0.0321913 -0.0029431 0)
(-0.0308252 -0.00322267 0)
(-0.0295019 -0.00344941 0)
(-0.0280719 -0.00365314 0)
(-0.0264124 -0.00384406 0)
(-0.0248606 -0.00398313 0)
(-0.0232367 -0.00409074 0)
(-0.0214059 -0.00416881 0)
(-0.019743 -0.00420146 0)
(-0.018051 -0.00419737 0)
(-0.0161932 -0.00414933 0)
(-0.0145521 -0.00406774 0)
(-0.0129289 -0.00394857 0)
(-0.0111958 -0.00377558 0)
(-0.00971046 -0.0035856 0)
(-0.00828821 -0.00336232 0)
(-0.00682006 -0.00308198 0)
(-0.00560867 -0.00280446 0)
(-0.00449687 -0.00250355 0)
(-0.0034023 -0.00215094 0)
(-0.00254835 -0.0018229 0)
(-0.00181469 -0.00148767 0)
(-0.00114873 -0.001118 0)
(-0.000680831 -0.000796347 0)
(-0.00033007 -0.000492623 0)
(-6.93274e-05 -0.000190691 0)
(6.26169e-05 3.53506e-05 0)
(0.000113566 0.000202683 0)
(0.000100729 0.000298624 0)
(5.46789e-05 0.000281854 0)
(9.58689e-06 0.000141225 0)
(-1.16583e-05 -2.2609e-05 0)
(-0.000100089 9.76941e-05 0)
(-0.000292651 0.000367162 0)
(-0.000648843 0.000778822 0)
(-0.0011063 0.00120501 0)
(-0.00169824 0.00165356 0)
(-0.00251847 0.00215594 0)
(-0.00339584 0.00259358 0)
(-0.00439752 0.00300546 0)
(-0.00565446 0.00342863 0)
(-0.00690045 0.00377372 0)
(-0.00824003 0.00407955 0)
(-0.00983643 0.00437583 0)
(-0.0113544 0.00460521 0)
(-0.0129291 0.00479528 0)
(-0.0147463 0.00496451 0)
(-0.01643 0.00508431 0)
(-0.0181339 0.00516867 0)
(-0.0200557 0.00522432 0)
(-0.0218038 0.00524706 0)
(-0.0235387 0.0052381 0)
(-0.0254579 0.00519299 0)
(-0.0271776 0.00512851 0)
(-0.0288529 0.00503473 0)
(-0.0306706 0.00489672 0)
(-0.0322751 0.00475015 0)
(-0.0338059 0.00457567 0)
(-0.0354284 0.00434844 0)
(-0.0368345 0.00412192 0)
(-0.0381394 0.00386888 0)
(-0.0394771 0.00355526 0)
(-0.0406053 0.00325132 0)
(-0.0416067 0.00292341 0)
(-0.0425758 0.00252938 0)
(-0.0433521 0.00215454 0)
(-0.0439804 0.00176052 0)
(-0.0445077 0.00129887 0)
(-0.0448698 0.000866659 0)
(-0.0450689 0.000423028 0)
(-0.0451 -8.42446e-05 0)
(-0.0450046 -0.000552168 0)
(-0.0447398 -0.00102097 0)
(-0.0443025 -0.0014933 0)
(-0.0436764 -0.00201555 0)
(-0.0429419 -0.00247579 0)
(-0.0420391 -0.00292607 0)
(-0.0409039 -0.00341146 0)
(-0.0397294 -0.00382407 0)
(-0.0384041 -0.00421221 0)
(-0.0368205 -0.00461516 0)
(-0.0352739 -0.00493965 0)
(-0.0336072 -0.00522602 0)
(-0.0316786 -0.0055033 0)
(-0.0298645 -0.00570338 0)
(-0.0279728 -0.00585451 0)
(-0.025839 -0.00597191 0)
(-0.0238919 -0.00602136 0)
(-0.0219178 -0.00601581 0)
(-0.0197442 -0.00595452 0)
(-0.0178163 -0.00584253 0)
(-0.0159148 -0.00567574 0)
(-0.013875 -0.0054373 0)
(-0.0121197 -0.00517226 0)
(-0.0104409 -0.00485974 0)
(-0.00869592 -0.00446897 0)
(-0.00724852 -0.00408054 0)
(-0.00591703 -0.00365945 0)
(-0.00459196 -0.00316606 0)
(-0.00354832 -0.00270666 0)
(-0.00264217 -0.00223762 0)
(-0.00180181 -0.00171927 0)
(-0.00119626 -0.00126831 0)
(-0.00072424 -0.000841746 0)
(-0.000347434 -0.00041441 0)
(-0.000129375 -9.15751e-05 0)
(-7.59031e-06 0.000154841 0)
(3.95704e-05 0.000311877 0)
(3.06634e-05 0.00031893 0)
(6.25971e-06 0.000167045 0)
(-1.95177e-05 4.05346e-05 0)
(-0.000156157 0.000288338 0)
(-0.000433316 0.000701584 0)
(-0.000918558 0.00128664 0)
(-0.00151546 0.00187209 0)
(-0.00226835 0.00248376 0)
(-0.00328967 0.00316521 0)
(-0.00435948 0.00375267 0)
(-0.00557094 0.00431069 0)
(-0.0070785 0.00488535 0)
(-0.008553 0.00534716 0)
(-0.0101376 0.00576387 0)
(-0.0120213 0.00617004 0)
(-0.0137919 0.00647486 0)
(-0.0156354 0.00673547 0)
(-0.0177648 0.00697077 0)
(-0.0197128 0.007125 0)
(-0.0216976 0.00724075 0)
(-0.0239436 0.00732108 0)
(-0.025955 0.00734036 0)
(-0.0279699 0.00732651 0)
(-0.030212 0.00726773 0)
(-0.0321807 0.00716499 0)
(-0.0341225 0.00703243 0)
(-0.0362481 0.00684437 0)
(-0.0380744 0.00662701 0)
(-0.0398452 0.00638142 0)
(-0.0417472 0.00606879 0)
(-0.0433359 0.0057408 0)
(-0.0448423 0.00538566 0)
(-0.0464182 0.00495229 0)
(-0.0476785 0.00451858 0)
(-0.0488322 0.0040598 0)
(-0.0499862 0.00351398 0)
(-0.0508352 0.00298506 0)
(-0.0515572 0.00243556 0)
(-0.0522064 0.00179482 0)
(-0.0525749 0.00119079 0)
(-0.0528026 0.000574019 0)
(-0.0528892 -6.16641e-05 0)
(-0.0527266 -0.000779787 0)
(-0.0524219 -0.00142985 0)
(-0.0519659 -0.00208742 0)
(-0.0512031 -0.00280766 0)
(-0.0503601 -0.00344459 0)
(-0.049368 -0.00407391 0)
(-0.0480277 -0.00473949 0)
(-0.0466807 -0.00530986 0)
(-0.0452005 -0.00585576 0)
(-0.0433521 -0.0064055 0)
(-0.0415779 -0.00685429 0)
(-0.0397002 -0.00726212 0)
(-0.0374602 -0.00763835 0)
(-0.0353763 -0.00791628 0)
(-0.0332313 -0.00813973 0)
(-0.0307567 -0.00829705 0)
(-0.028514 -0.00836858 0)
(-0.0262614 -0.00837761 0)
(-0.0237371 -0.00829137 0)
(-0.0215067 -0.0081419 0)
(-0.0193209 -0.00792947 0)
(-0.0169414 -0.00760241 0)
(-0.0148959 -0.00724352 0)
(-0.0129464 -0.00683006 0)
(-0.0108922 -0.00629636 0)
(-0.00918446 -0.00576871 0)
(-0.00761315 -0.00520449 0)
(-0.00602548 -0.00453193 0)
(-0.00476508 -0.00390711 0)
(-0.00366276 -0.00327435 0)
(-0.00261683 -0.0025676 0)
(-0.00184633 -0.0019524 0)
(-0.00122916 -0.00137158 0)
(-0.000708582 -0.000782635 0)
(-0.000381086 -0.00033202 0)
(-0.000169019 2.09858e-05 0)
(-4.26404e-05 0.000267907 0)
(-1.58355e-06 0.000322459 0)
(1.78354e-06 0.00018054 0)
(-2.63915e-05 0.0001227 0)
(-0.000206821 0.00052482 0)
(-0.000562439 0.0010989 0)
(-0.00116488 0.00186532 0)
(-0.00189376 0.00261928 0)
(-0.00279472 0.00339302 0)
(-0.00399588 0.00424816 0)
(-0.00524948 0.00499136 0)
(-0.00664852 0.00568827 0)
(-0.0083732 0.00640525 0)
(-0.0100664 0.00699156 0)
(-0.0118632 0.00751083 0)
(-0.0139875 0.00801677 0)
(-0.0160011 0.00840751 0)
(-0.0180716 0.00873092 0)
(-0.0204539 0.00902145 0)
(-0.0226599 0.00922242 0)
(-0.0248771 0.00936274 0)
(-0.0273776 0.00945597 0)
(-0.0296519 0.00948473 0)
(-0.0318955 0.00946007 0)
(-0.0343823 0.00937486 0)
(-0.0366082 0.00924634 0)
(-0.0387653 0.00906994 0)
(-0.0411146 0.00881858 0)
(-0.0431816 0.00854148 0)
(-0.0451455 0.00822062 0)
(-0.0472391 0.00780976 0)
(-0.0490413 0.00738898 0)
(-0.0507094 0.00692858 0)
(-0.0524349 0.00636438 0)
(-0.0538713 0.00580628 0)
(-0.0551475 0.00521456 0)
(-0.0564006 0.00450906 0)
(-0.057379 0.00382732 0)
(-0.0581775 0.00312132 0)
(-0.0588687 0.00229824 0)
(-0.0593126 0.00151868 0)
(-0.0595656 0.000728514 0)
(-0.0596292 -0.000172575 0)
(-0.0594866 -0.00101046 0)
(-0.0591535 -0.00184168 0)
(-0.0586176 -0.00268744 0)
(-0.0578077 -0.00360877 0)
(-0.0568824 -0.0044225 0)
(-0.0557521 -0.00522838 0)
(-0.0543023 -0.00608185 0)
(-0.0528217 -0.00681113 0)
(-0.0511505 -0.00750755 0)
(-0.0491355 -0.0082157 0)
(-0.0471822 -0.00879155 0)
(-0.0450699 -0.00930997 0)
(-0.042615 -0.00979967 0)
(-0.0403156 -0.0101602 0)
(-0.0379047 -0.0104428 0)
(-0.0351796 -0.0106563 0)
(-0.0326968 -0.0107568 0)
(-0.0301622 -0.0107663 0)
(-0.0273674 -0.0106717 0)
(-0.0248863 -0.0104932 0)
(-0.0224186 -0.0102215 0)
(-0.019766 -0.00982152 0)
(-0.0174745 -0.00937808 0)
(-0.0152596 -0.0088517 0)
(-0.0129472 -0.00818878 0)
(-0.0110125 -0.00753081 0)
(-0.00920684 -0.00681392 0)
(-0.00739092 -0.00597308 0)
(-0.00593515 -0.0051898 0)
(-0.00464034 -0.00438625 0)
(-0.00340801 -0.00349807 0)
(-0.00248303 -0.00272163 0)
(-0.00172203 -0.00198057 0)
(-0.00106522 -0.00123068 0)
(-0.000631133 -0.000648212 0)
(-0.00032864 -0.000179763 0)
(-0.000124252 0.000167992 0)
(-3.33599e-05 0.000286855 0)
(-2.57064e-06 0.000176739 0)
(-3.34345e-05 0.000229861 0)
(-0.000257792 0.000823341 0)
(-0.000690633 0.00158731 0)
(-0.00141362 0.00256544 0)
(-0.00227293 0.00350368 0)
(-0.00332345 0.00445723 0)
(-0.00471129 0.00550482 0)
(-0.00614189 0.0064088 0)
(-0.00773173 0.00725786 0)
(-0.00968088 0.00812968 0)
(-0.0115776 0.00884039 0)
(-0.0135905 0.00947285 0)
(-0.0159615 0.0100868 0)
(-0.0181939 0.0105606 0)
(-0.0204954 0.0109547 0)
(-0.0231357 0.0113049 0)
(-0.0255673 0.0115478 0)
(-0.0280216 0.0117172 0)
(-0.0307812 0.0118239 0)
(-0.0332799 0.0118558 0)
(-0.0357574 0.011821 0)
(-0.0384943 0.011706 0)
(-0.0409353 0.0115442 0)
(-0.043314 0.0113203 0)
(-0.045894 0.0109982 0)
(-0.0481587 0.0106529 0)
(-0.0503221 0.0102488 0)
(-0.0526168 0.0097281 0)
(-0.0545914 0.00920552 0)
(-0.056428 0.00862779 0)
(-0.0583151 0.00791705 0)
(-0.0598911 0.00722551 0)
(-0.0612963 0.00648502 0)
(-0.062663 0.00560025 0)
(-0.0637419 0.00475708 0)
(-0.0646228 0.00387566 0)
(-0.0653724 0.00284725 0)
(-0.0658724 0.00188442 0)
(-0.0661559 0.000899885 0)
(-0.0662212 -0.000114013 0)
(-0.0660837 -0.00125641 0)
(-0.0657258 -0.00229047 0)
(-0.0651394 -0.00333228 0)
(-0.064275 -0.00447943 0)
(-0.0632692 -0.00549085 0)
(-0.0620396 -0.00648242 0)
(-0.0604739 -0.0075462 0)
(-0.0588596 -0.00845287 0)
(-0.0570429 -0.00931 0)
(-0.0548553 -0.0101953 0)
(-0.0527207 -0.0109128 0)
(-0.0504224 -0.0115525 0)
(-0.0477465 -0.0121696 0)
(-0.0452273 -0.0126221 0)
(-0.0425983 -0.0129744 0)
(-0.0396159 -0.013252 0)
(-0.0368869 -0.0133845 0)
(-0.0341131 -0.0134039 0)
(-0.0310398 -0.0133025 0)
(-0.0283005 -0.0130919 0)
(-0.0255859 -0.0127679 0)
(-0.0226505 -0.01229 0)
(-0.0201043 -0.0117531 0)
(-0.017649 -0.0111173 0)
(-0.0150668 -0.0103143 0)
(-0.0128961 -0.00951288 0)
(-0.0108702 -0.00864267 0)
(-0.00881354 -0.00761793 0)
(-0.00715351 -0.00666068 0)
(-0.00567061 -0.00568107 0)
(-0.00423951 -0.00459265 0)
(-0.00315208 -0.0036388 0)
(-0.002245 -0.00272718 0)
(-0.00144177 -0.00179563 0)
(-0.000895136 -0.0010649 0)
(-0.000497848 -0.000464667 0)
(-0.000209876 6.75385e-06 0)
(-6.6755e-05 0.000209741 0)
(-7.09684e-06 0.00015779 0)
(-4.11052e-05 0.000377879 0)
(-0.00031325 0.00122782 0)
(-0.000831883 0.00224141 0)
(-0.00168913 0.00348981 0)
(-0.00269342 0.00465548 0)
(-0.00391131 0.00583094 0)
(-0.00550885 0.00711363 0)
(-0.00713611 0.00820627 0)
(-0.00893809 0.00923768 0)
(-0.0111393 0.0102969 0)
(-0.0132593 0.0111476 0)
(-0.0155091 0.0119142 0)
(-0.0181566 0.0126611 0)
(-0.0206246 0.0132224 0)
(-0.0231757 0.0136999 0)
(-0.0261057 0.014128 0)
(-0.0287749 0.014407 0)
(-0.0314821 0.0146104 0)
(-0.0345352 0.0147423 0)
(-0.0372645 0.0147619 0)
(-0.0399896 0.0147141 0)
(-0.0430146 0.0145741 0)
(-0.0456703 0.0143546 0)
(-0.0482822 0.0140731 0)
(-0.0511353 0.0136777 0)
(-0.05359 0.0132318 0)
(-0.0559633 0.0127273 0)
(-0.0585067 0.0120861 0)
(-0.0606378 0.0114227 0)
(-0.0626523 0.0107036 0)
(-0.0647543 0.00982691 0)
(-0.0664455 0.00895783 0)
(-0.0679884 0.00803843 0)
(-0.0695272 0.00694583 0)
(-0.0706731 0.00589416 0)
(-0.0716446 0.00480219 0)
(-0.0725157 0.00353061 0)
(-0.0730294 0.00233712 0)
(-0.0733508 0.00111959 0)
(-0.0734797 -0.000130845 0)
(-0.0733001 -0.00154502 0)
(-0.0729241 -0.00282222 0)
(-0.0723433 -0.0041112 0)
(-0.0713759 -0.00552554 0)
(-0.0702941 -0.00677425 0)
(-0.0690106 -0.00800564 0)
(-0.0672819 -0.00931385 0)
(-0.0655352 -0.0104341 0)
(-0.0636063 -0.0115049 0)
(-0.0612002 -0.0125925 0)
(-0.0588813 -0.0134815 0)
(-0.0564174 -0.01429 0)
(-0.0534754 -0.0150487 0)
(-0.0507279 -0.0156142 0)
(-0.0478881 -0.0160736 0)
(-0.0446036 -0.0164177 0)
(-0.0416138 -0.0165924 0)
(-0.0385961 -0.0166457 0)
(-0.0351998 -0.0165272 0)
(-0.0321818 -0.0162822 0)
(-0.0292054 -0.0159148 0)
(-0.0259434 -0.0153366 0)
(-0.0231169 -0.0146916 0)
(-0.0203989 -0.0139398 0)
(-0.0175048 -0.012964 0)
(-0.0150695 -0.0119932 0)
(-0.0127969 -0.0109495 0)
(-0.0104606 -0.00970059 0)
(-0.0085671 -0.00853533 0)
(-0.00686953 -0.00734954 0)
(-0.00520627 -0.00601682 0)
(-0.00393011 -0.00484715 0)
(-0.00285414 -0.00372969 0)
(-0.00187924 -0.00257235 0)
(-0.00120076 -0.00165443 0)
(-0.000693561 -0.000886314 0)
(-0.000308212 -0.000249353 0)
(-0.000104638 7.54127e-05 0)
(-1.22202e-05 0.000117778 0)
(-4.73919e-05 0.000533711 0)
(-0.000361443 0.00165668 0)
(-0.000957419 0.00292768 0)
(-0.00192995 0.00444293 0)
(-0.00306783 0.0058447 0)
(-0.0044354 0.00723376 0)
(-0.00621229 0.00873609 0)
(-0.00802627 0.0100246 0)
(-0.0100152 0.0112227 0)
(-0.0124283 0.0124496 0)
(-0.0147657 0.0134502 0)
(-0.0172201 0.014334 0)
(-0.0200944 0.0151938 0)
(-0.0227972 0.0158566 0)
(-0.0255595 0.0164023 0)
(-0.02872 0.0168892 0)
(-0.0316326 0.0172218 0)
(-0.0345501 0.0174471 0)
(-0.0378291 0.0175864 0)
(-0.0408029 0.0176136 0)
(-0.043731 0.0175444 0)
(-0.0469698 0.0173634 0)
(-0.0498635 0.0171069 0)
(-0.0526651 0.0167632 0)
(-0.0557123 0.0162809 0)
(-0.0583905 0.0157546 0)
(-0.0609342 0.0151487 0)
(-0.0636446 0.0143771 0)
(-0.0659766 0.0135907 0)
(-0.0681364 0.012733 0)
(-0.0703712 0.0116856 0)
(-0.0722329 0.0106531 0)
(-0.0738902 0.00956096 0)
(-0.0755216 0.00826238 0)
(-0.0767999 0.00701087 0)
(-0.0778497 0.00571725 0)
(-0.078768 0.00421235 0)
(-0.0793691 0.00278986 0)
(-0.0797284 0.00134992 0)
(-0.0798523 -0.00028762 0)
(-0.0797124 -0.00181101 0)
(-0.0793305 -0.0033205 0)
(-0.0786926 -0.0048551 0)
(-0.0777107 -0.00652665 0)
(-0.0765771 -0.00800324 0)
(-0.075183 -0.00946598 0)
(-0.0733848 -0.0110171 0)
(-0.0715396 -0.0123448 0)
(-0.0694493 -0.0136152 0)
(-0.0669191 -0.0149116 0)
(-0.0644571 -0.0159708 0)
(-0.061786 -0.0169299 0)
(-0.0586696 -0.0178445 0)
(-0.0557391 -0.0185273 0)
(-0.0526551 -0.0190737 0)
(-0.0491537 -0.0195047 0)
(-0.045949 -0.0197316 0)
(-0.0426621 -0.0197987 0)
(-0.0390182 -0.0196879 0)
(-0.0357642 -0.0194235 0)
(-0.0325083 -0.0189939 0)
(-0.0289833 -0.0183425 0)
(-0.0259138 -0.0176076 0)
(-0.0229221 -0.0167242 0)
(-0.0197667 -0.0156023 0)
(-0.0170963 -0.0144813 0)
(-0.0145722 -0.0132522 0)
(-0.0119939 -0.0118032 0)
(-0.0098885 -0.0104465 0)
(-0.00797616 -0.00904607 0)
(-0.00610677 -0.00748757 0)
(-0.00465635 -0.0061126 0)
(-0.00341495 -0.00478247 0)
(-0.00228504 -0.00340852 0)
(-0.00148368 -0.00230397 0)
(-0.000871817 -0.00135886 0)
(-0.000398358 -0.000550614 0)
(-0.000138754 -9.01699e-05 0)
(-1.66774e-05 6.46934e-05 0)
(-5.39748e-05 0.000714306 0)
(-0.000409355 0.0021428 0)
(-0.00107875 0.00370041 0)
(-0.00216834 0.00551647 0)
(-0.00343323 0.00716547 0)
(-0.00494808 0.00878843 0)
(-0.00690966 0.0105318 0)
(-0.00889688 0.0120139 0)
(-0.011074 0.0133943 0)
(-0.0137072 0.0148021 0)
(-0.0162402 0.0159436 0)
(-0.0189041 0.0169572 0)
(-0.022015 0.017938 0)
(-0.0249224 0.0186903 0)
(-0.0279037 0.0193143 0)
(-0.0313061 0.0198644 0)
(-0.0344243 0.0202381 0)
(-0.0375624 0.0204924 0)
(-0.0410802 0.0206403 0)
(-0.044255 0.0206629 0)
(-0.0473985 0.0205758 0)
(-0.0508658 0.0203517 0)
(-0.0539506 0.0200474 0)
(-0.0569559 0.0196406 0)
(-0.0602144 0.0190657 0)
(-0.0630688 0.0184499 0)
(-0.0657978 0.0177372 0)
(-0.0686952 0.0168257 0)
(-0.0711833 0.0159098 0)
(-0.0735031 0.0149036 0)
(-0.0758937 0.0136716 0)
(-0.0778864 0.0124719 0)
(-0.0796721 0.0111928 0)
(-0.0814209 0.00966983 0)
(-0.0828003 0.00821788 0)
(-0.0839408 0.00670476 0)
(-0.084932 0.00494344 0)
(-0.0855997 0.00329443 0)
(-0.0860065 0.00161154 0)
(-0.0861534 -0.000301852 0)
(-0.0860415 -0.00206794 0)
(-0.0856596 -0.00383161 0)
(-0.0850011 -0.00560986 0)
(-0.083995 -0.00756488 0)
(-0.0828107 -0.009291 0)
(-0.0813524 -0.0109873 0)
(-0.0794726 -0.0128052 0)
(-0.0775254 -0.01436 0)
(-0.075326 -0.0158367 0)
(-0.0726574 -0.0173627 0)
(-0.0700436 -0.0186078 0)
(-0.06722 -0.0197289 0)
(-0.0639123 -0.0208153 0)
(-0.0607854 -0.0216257 0)
(-0.0575101 -0.0222744 0)
(-0.0537725 -0.0228024 0)
(-0.0503358 -0.0230851 0)
(-0.0468268 -0.0231833 0)
(-0.0429141 -0.0230838 0)
(-0.0394055 -0.0227965 0)
(-0.0359084 -0.0223223 0)
(-0.0320981 -0.0215941 0)
(-0.0287668 -0.0207593 0)
(-0.0255294 -0.0197592 0)
(-0.0220909 -0.0184807 0)
(-0.0191687 -0.0171944 0)
(-0.0164105 -0.0157899 0)
(-0.0135706 -0.0141241 0)
(-0.0112403 -0.0125579 0)
(-0.00912161 -0.0109458 0)
(-0.00703049 -0.00913981 0)
(-0.0053976 -0.0075403 0)
(-0.00399304 -0.00599161 0)
(-0.00269821 -0.00437567 0)
(-0.00177065 -0.00306452 0)
(-0.00105388 -0.00192634 0)
(-0.000488648 -0.00091843 0)
(-0.000173368 -0.000299495 0)
(-2.12771e-05 -4.40763e-06 0)
(-6.11249e-05 0.000942722 0)
(-0.000460703 0.0027524 0)
(-0.00121013 0.00466601 0)
(-0.00242833 0.00685341 0)
(-0.00383149 0.00879989 0)
(-0.00550708 0.0107045 0)
(-0.00767355 0.0127389 0)
(-0.00985029 0.0144452 0)
(-0.0122322 0.0160395 0)
(-0.0151115 0.0176646 0)
(-0.0178577 0.0189619 0)
(-0.0207479 0.0201253 0)
(-0.0241251 0.0212538 0)
(-0.0272535 0.0220979 0)
(-0.0304692 0.022811 0)
(-0.0341463 0.0234436 0)
(-0.0374832 0.0238494 0)
(-0.0408555 0.0241355 0)
(-0.0446485 0.0243048 0)
(-0.0480326 0.024304 0)
(-0.0514036 0.0241946 0)
(-0.0551401 0.0239336 0)
(-0.0584191 0.0235535 0)
(-0.0616393 0.0230725 0)
(-0.0651547 0.0224041 0)
(-0.0681823 0.0216629 0)
(-0.0711076 0.0208258 0)
(-0.0742431 0.0197651 0)
(-0.076878 0.0186768 0)
(-0.0793694 0.0174981 0)
(-0.0819725 0.0160631 0)
(-0.0840796 0.0146483 0)
(-0.0860061 0.0131524 0)
(-0.0879348 0.0113763 0)
(-0.089391 0.00967307 0)
(-0.0906352 0.00790538 0)
(-0.0917662 0.00584814 0)
(-0.092468 0.00392142 0)
(-0.0929356 0.00195637 0)
(-0.0931687 -6.13929e-05 0)
(-0.0930494 -0.00234007 0)
(-0.09268 -0.00439978 0)
(-0.0920608 -0.0064773 0)
(-0.0909893 -0.00876274 0)
(-0.0897647 -0.0107809 0)
(-0.0882911 -0.0127715 0)
(-0.0862869 -0.0148964 0)
(-0.0842436 -0.0167188 0)
(-0.081971 -0.0184636 0)
(-0.0791187 -0.0202502 0)
(-0.076353 -0.0217171 0)
(-0.073398 -0.0230576 0)
(-0.0698505 -0.0243359 0)
(-0.0665195 -0.0253019 0)
(-0.0630587 -0.0261006 0)
(-0.0590331 -0.0267329 0)
(-0.0553485 -0.0270886 0)
(-0.0516088 -0.0272517 0)
(-0.0473732 -0.0271566 0)
(-0.043586 -0.0268503 0)
(-0.0398273 -0.0263479 0)
(-0.035677 -0.0255214 0)
(-0.0320539 -0.0245763 0)
(-0.0285421 -0.0234576 0)
(-0.0247677 -0.0219878 0)
(-0.0215605 -0.0205118 0)
(-0.0185359 -0.0189127 0)
(-0.0153868 -0.0169844 0)
(-0.0127992 -0.0151726 0)
(-0.0104433 -0.0133158 0)
(-0.00809157 -0.0112093 0)
(-0.0062485 -0.00934085 0)
(-0.00465627 -0.00753151 0)
(-0.00316934 -0.00561745 0)
(-0.00209675 -0.00405109 0)
(-0.00126045 -0.00267354 0)
(-0.000590118 -0.00141005 0)
(-0.000211801 -0.000583236 0)
(-2.64117e-05 -0.0001006 0)
(-6.66602e-05 0.00116582 0)
(-0.000504734 0.00336266 0)
(-0.00132665 0.0056287 0)
(-0.00265127 0.00816753 0)
(-0.00418176 0.0104198 0)
(-0.00600012 0.0125901 0)
(-0.00833517 0.014889 0)
(-0.0106929 0.0168311 0)
(-0.013254 0.0186172 0)
(-0.0163328 0.0204307 0)
(-0.01929 0.0219 0)
(-0.0223748 0.0231901 0)
(-0.0259635 0.0244385 0)
(-0.0293184 0.0253953 0)
(-0.0327323 0.026177 0)
(-0.0366213 0.0268669 0)
(-0.0401918 0.0273299 0)
(-0.0437589 0.0276322 0)
(-0.0477575 0.0278009 0)
(-0.0513756 0.0278047 0)
(-0.0549338 0.0276629 0)
(-0.0588642 0.0273471 0)
(-0.0623723 0.0269205 0)
(-0.0657684 0.0263612 0)
(-0.0694615 0.0255863 0)
(-0.0727077 0.0247483 0)
(-0.0757943 0.0237887 0)
(-0.0790865 0.0225725 0)
(-0.0819235 0.0213377 0)
(-0.0845578 0.0199942 0)
(-0.087292 0.018358 0)
(-0.0895785 0.0167487 0)
(-0.0916254 0.0150491 0)
(-0.093655 0.0130316 0)
(-0.0952608 0.0110902 0)
(-0.0965987 0.00908496 0)
(-0.0977953 0.0067545 0)
(-0.0986097 0.00455337 0)
(-0.099139 0.00232532 0)
(-0.0994034 -0.000209994 0)
(-0.099346 -0.00256205 0)
(-0.0990013 -0.00489875 0)
(-0.0983546 -0.00727534 0)
(-0.097308 -0.00986746 0)
(-0.0960657 -0.0121611 0)
(-0.0945113 -0.0144373 0)
(-0.0924789 -0.0168577 0)
(-0.090371 -0.0189366 0)
(-0.087963 -0.0209332 0)
(-0.0850247 -0.0229818 0)
(-0.0821452 -0.0246667 0)
(-0.0790014 -0.0262046 0)
(-0.0753096 -0.0276885 0)
(-0.0718163 -0.0288148 0)
(-0.068119 -0.029738 0)
(-0.0638949 -0.0304989 0)
(-0.0600046 -0.0309409 0)
(-0.0559912 -0.0311418 0)
(-0.0515128 -0.0310832 0)
(-0.0474868 -0.0307788 0)
(-0.0434323 -0.030222 0)
(-0.0390106 -0.0293343 0)
(-0.0351305 -0.0283044 0)
(-0.03132 -0.0270435 0)
(-0.0272657 -0.0254206 0)
(-0.0238018 -0.0237815 0)
(-0.0204965 -0.0219683 0)
(-0.0170816 -0.0198131 0)